integrator              = steep
emtol                   = 500.0
emstep                  = 0.01
nsteps                  = 50000
cutoff-scheme           = Verlet
coulombtype             = PME
rcoulomb                = 1.2
vdwtype                 = Cut-off
rvdw                    = 1.2
pbc                     = xyz
