integrator              = steep
emtol                   = 500.0
emstep                  = 0.01
nsteps                  = 50000
cutoff-scheme           = Verlet
coulombtype             = PME
rcoulomb                = 0.9
vdwtype                 = Cut-off
rvdw                    = 0.9
pbc                     = xyz
